<?xml version="1.0"?>
<VTKFile type="UnstructuredGrid" version="0.1" byte_order="LittleEndian">
<UnstructuredGrid>
<Piece NumberOfPoints="4" NumberOfCells="3">
<Points>
<DataArray type="Float64" Name="Points" NumberOfComponents="3" format="ascii">
 0. 0. 0.0 0. 5. 0.0 5. 5. 0.0 5. 0. 0.0
</DataArray>
</Points>
<Cells>
<DataArray type="Int32" Name="connectivity" format="ascii">
 0 1 1 2 2 3
</DataArray>
<DataArray type="Int32" Name="offsets" format="ascii">
 2 4 6
</DataArray>
<DataArray type="Int32" Name="types" format="ascii">
 3 3 3
</DataArray>
</Cells>
<CellData>
<Array type="Int32" Name="FEM_ELEMENT_ID" format="ascii">
 1 2 3
</Array>
<Array type="String" Name="Element_Type" format="ascii">
 98 101 97 109 0 98 101 97 109 0 98 101 97 109 0
</Array>
</CellData>
<PointData>
<DataArray type="Float64" Name="SPC_DIR_1" NumberOfComponents="3" format="ascii">
1.0 0.0 0.0 0.0 0.0 0.0 0.0 0.0 0.0 1.0 0.0 0.0 
</DataArray>
<DataArray type="Float64" Name="SPC_DIR_2" NumberOfComponents="3" format="ascii">
0.0 1.0 0.0 0.0 0.0 0.0 0.0 0.0 0.0 0.0 1.0 0.0 
</DataArray>
<DataArray type="Float64" Name="SPC_DIR_3" NumberOfComponents="3" format="ascii">
0.0 0.0 1.0 0.0 0.0 0.0 0.0 0.0 0.0 0.0 0.0 1.0 
</DataArray>
<DataArray type="Float64" Name="LOAD_DIR_1" NumberOfComponents="3" format="ascii">
 0. 0. 0. 0. 0. 0. 0. 0. 0. 0. 0. 0.
</DataArray>
<DataArray type="Float64" Name="LOAD_DIR_2" NumberOfComponents="3" format="ascii">
 0. 0. 0. 0. 0. 0. 0. 0. 0. 0. 0. 0.
</DataArray>
<DataArray type="Float64" Name="LOAD_DIR_3" NumberOfComponents="3" format="ascii">
 0. 0. 0. -0.0 -0.0 -20.83333333  0.0 0.0 20.83333333  0. 0. 0.
</DataArray>
</PointData>
</Piece>
</UnstructuredGrid>
</VTKFile>
